4
Lattice="3.674 0.0 0.0 0.0 3.674 0.0 0.0 0.0 5.033" Properties=species:S:1:pos:R:3:spacegroup_kinds:I:1:forces:R:3 spacegroup="P 4/n m m" unit_cell=conventional config_type=mackinawite_bulk_eq energy=-27.798645801634887 stress="0.06557028003830631 0.0 -3.888549014002283e-20 0.0 0.06557028003830631 0.0 -3.888549014002283e-20 0.0 0.050812071977643265" pbc="T T T"
Fe       0.00000000       0.00000000       0.00000000        0       0.00000000       0.00000000       0.00000000
Fe       1.83700000       1.83700000       0.00000000        0       0.00000000       0.00000000       0.00000000
S        0.00000000       1.83700000       1.30958660        1       0.00000000       0.00000000      -1.64620951
S        1.83700000       0.00000000       3.72341340        1       0.00000000       0.00000000       1.64620951
4
Lattice="3.674 0.0 0.0 0.0 3.674 0.0 0.0 0.0 5.033" Properties=species:S:1:pos:R:3:spacegroup_kinds:I:1:forces:R:3 spacegroup="P 4/n m m" unit_cell=conventional config_type=mackinawite_bulk_rattle_0.05_00 energy=-27.76124891491048 stress="0.06895666299681158 5.2735596059075906e-05 0.002750626213124838 5.2735596059075906e-05 0.05922706529248968 0.008673427548592851 0.002750626213124838 0.008673427548592851 0.05025537278361721" pbc="T T T"
Fe       0.02483571      -0.00691322       0.03238443        0       0.38012714       0.27266635      -0.59675023
Fe       1.91315149       1.82529233      -0.01170685        0      -0.34471350       0.05529252      -0.08443179
S        0.07896064       1.87537174       1.28611288        1      -0.10540191      -0.41173126      -1.27277889
S        1.86412800      -0.02317088       3.70012691        1       0.06996594       0.08478728       1.95542011
4
Lattice="3.674 0.0 0.0 0.0 3.674 0.0 0.0 0.0 5.033" Properties=species:S:1:pos:R:3:spacegroup_kinds:I:1:forces:R:3 spacegroup="P 4/n m m" unit_cell=conventional config_type=mackinawite_bulk_rattle_0.05_01 energy=-27.596415132653437 stress="0.0658001801768221 0.0017670445704282686 0.00791212739937002 0.0017670445704282686 0.060501381090638705 0.019494150341238373 0.00791212739937002 0.019494150341238373 0.05351162028603428" pbc="T T T"
Fe       0.01287000      -0.04542407      -0.01892516        0      -0.40966088       1.13054409       0.41105873
Fe       1.81025422       1.87990367      -0.02065050        0       0.41926975      -0.72862694       0.64686271
S        0.02490943       1.93750996       1.37272968        1      -0.22491695      -0.73389162      -2.24087287
S        1.81503926      -0.01732189       3.74617938        1       0.21536545       0.33299822       1.18113568
4
Lattice="3.674 0.0 0.0 0.0 3.674 0.0 0.0 0.0 5.033" Properties=species:S:1:pos:R:3:spacegroup_kinds:I:1:forces:R:3 spacegroup="P 4/n m m" unit_cell=conventional config_type=mackinawite_bulk_rattle_0.05_02 energy=-27.564592844982972 stress="0.0625720064705478 -0.003089404274097433 0.008871013572857325 -0.003089404274097433 0.048133653081254835 -0.004974433660343658 0.008871013572857325 -0.004974433660343658 0.04484861300349858" pbc="T T T"
Fe      -0.03753074       0.06581787       0.06230700        0       0.21066446      -1.24907325      -0.60213852
Fe       1.75675421       1.76359282      -0.08575352        0       1.15585669       0.90539382       0.47120674
S        0.09293918       1.84137940       1.30697049        1      -0.90647163       0.35732898      -1.38094072
S        1.86477358      -0.04817018       3.71439733        1      -0.45914981      -0.01402954       1.51197592
4
Lattice="3.674 0.0 0.0 0.0 3.674 0.0 0.0 0.0 5.033" Properties=species:S:1:pos:R:3:spacegroup_kinds:I:1:forces:R:3 spacegroup="P 4/n m m" unit_cell=conventional config_type=mackinawite_bulk_rattle_0.05_03 energy=-27.62483228946057 stress="0.06851153330641983 0.000147836074566075 -0.004057045486635179 0.000147836074566075 0.04691920566415462 -0.014122865927306699 -0.004057045486635179 -0.014122865927306699 0.0514410631912688" pbc="T T T"
Fe       0.00131874       0.01301609      -0.01975728        0       0.23656862      -0.66340269       0.32540059
Fe       1.82678495       1.77341837      -0.12984393        0       0.23414485       0.99798556       1.46692642
S        0.01448405       1.79333477       1.32929023        1      -0.10543270       0.26702055      -2.45599681
S        1.88375528      -0.00078424       3.73639320        1      -0.36468484      -0.60133721       0.66298527
4
Lattice="3.674 0.0 0.0 0.0 3.674 0.0 0.0 0.0 5.033" Properties=species:S:1:pos:R:3:spacegroup_kinds:I:1:forces:R:3 spacegroup="P 4/n m m" unit_cell=conventional config_type=mackinawite_bulk_rattle_0.05_04 energy=-27.717332411139594 stress="0.06795004504064023 -0.0011164749895045344 -0.0004659527226499089 -0.0011164749895045344 0.0537875220513519 -0.0022288885556590015 -0.0004659527226499089 -0.0022288885556590015 0.04644280091637808" pbc="T T T"
Fe       0.02924379       0.06155979       0.04109501        0      -0.36022213      -1.02710080      -0.56146448
Fe       1.79703858       1.85760266      -0.00880783        0       0.71956875      -0.29200550       0.14272732
S       -0.00365860       1.80871668       1.30491334        1      -0.15254848       0.73137658      -1.30845922
S        1.87986505      -0.04311116       3.72423745        1      -0.20620469       0.58528088       1.72493953
4
Lattice="3.674 0.0 0.0 0.0 3.674 0.0 0.0 0.0 5.033" Properties=species:S:1:pos:R:3:spacegroup_kinds:I:1:forces:R:3 spacegroup="P 4/n m m" unit_cell=conventional config_type=mackinawite_bulk_rattle_0.05_05 energy=-27.762394382603414 stress="0.04165664148210755 0.0024332204232606048 -0.011274617887656269 0.0024332204232606048 0.0573233853752646 0.004134871074980604 -0.011274617887656269 0.004134871074980604 0.031910432947744455" pbc="T T T"
Fe      -0.04240047       0.06529532       0.04621040        0       0.45186754      -1.07373008      -0.22291089
Fe       1.86902059       1.78426315       0.08988804        0      -1.20870910       0.73865384      -0.83398474
S       -0.05063934       1.87818117       1.29485408        1       0.71513688       0.03087969      -0.56030565
S        1.80737647      -0.06968635       3.77862238        1       0.04053177       0.30348799       1.61548511
4
Lattice="3.674 0.0 0.0 0.0 3.674 0.0 0.0 0.0 5.033" Properties=species:S:1:pos:R:3:spacegroup_kinds:I:1:forces:R:3 spacegroup="P 4/n m m" unit_cell=conventional config_type=mackinawite_bulk_rattle_0.05_06 energy=-27.329816537064104 stress="0.06743600527009544 -0.0020174520757071457 -0.017887356345276544 -0.0020174520757071457 0.07757573753461014 -0.005582163144448847 -0.017887356345276544 -0.005582163144448847 0.0692407464700383" pbc="T T T"
Fe      -0.04968157      -0.05317004      -0.03190380        0       0.43548947       0.84946654       0.39596861
Fe       1.89007943       1.82912979       0.05468642        0      -1.42010860       0.33379364      -0.48553800
S       -0.10374270       1.87203165       1.39331853        1       1.00254273      -0.41352722      -2.12579243
S        1.81713329       0.11618985       3.67342837        1      -0.01903785      -0.76825553       2.21553940
4
Lattice="3.674 0.0 0.0 0.0 3.674 0.0 0.0 0.0 5.033" Properties=species:S:1:pos:R:3:spacegroup_kinds:I:1:forces:R:3 spacegroup="P 4/n m m" unit_cell=conventional config_type=mackinawite_bulk_rattle_0.05_07 energy=-27.56556968006286 stress="0.05888195802901934 0.002736575358141439 -0.018618898628399782 0.002736575358141439 0.051843850337348105 -0.008311813379814206 -0.018618898628399782 -0.008311813379814206 0.042370328179416245" pbc="T T T"
Fe      -0.05215795      -0.04104278       0.03325729        0       1.55148684       0.37786288      -0.29560300
Fe       1.92813134       1.76492083       0.01169040        0      -1.17036597       1.10053013       0.02532703
S        0.01698097       1.84856069       1.30909031        1       0.31662429      -0.51769258      -1.28594944
S        1.92719239       0.06839220       3.71034529        1      -0.69733625      -0.96092802       1.55857155
4
Lattice="3.674 0.0 0.0 0.0 3.674 0.0 0.0 0.0 5.033" Properties=species:S:1:pos:R:3:spacegroup_kinds:I:1:forces:R:3 spacegroup="P 4/n m m" unit_cell=conventional config_type=mackinawite_bulk_rattle_0.05_08 energy=-27.894755895948578 stress="0.04580579005098807 2.952047611615519e-06 0.0034314465908234755 2.952047611615519e-06 0.04623643236944649 0.013616679867569995 0.0034314465908234755 0.013616679867569995 0.024673407433657087" pbc="T T T"
Fe      -0.07801761      -0.00154888      -0.03104642        0       0.18288862       0.78221839       0.18101072
Fe       1.76377098       1.90759731      -0.02383661        0       0.21272481      -0.91399297       0.16714719
S       -0.03902346       1.89051339       1.24547197        1      -0.29250200      -0.32171396      -1.06044663
S        1.77062605       0.00631688       3.76652309        1      -0.10252177       0.45350639       0.70876891
4
Lattice="3.674 0.0 0.0 0.0 3.674 0.0 0.0 0.0 5.033" Properties=species:S:1:pos:R:3:spacegroup_kinds:I:1:forces:R:3 spacegroup="P 4/n m m" unit_cell=conventional config_type=mackinawite_bulk_rattle_0.05_09 energy=-27.630110299245597 stress="0.06532336696800273 -0.0007305596529127393 -0.010660062938303506 -0.0007305596529127393 0.05725447592752115 -0.006197584408610243 -0.010660062938303506 -0.006197584408610243 0.04854239739150709" pbc="T T T"
Fe      -0.01452516       0.00560640       0.06253976        0       0.30416804      -0.54317354      -0.70701242
Fe       1.76895550       1.84199664      -0.00239956        0       0.94076589      -0.26687539      -0.22725702
S       -0.01781148       1.78257205       1.29203572        1      -0.32727178       0.59453299      -1.09443283
S        1.96642000      -0.02528254       3.69419794        1      -0.91794346       0.21542961       2.02950281
4
Lattice="3.674 0.0 0.0 0.0 3.674 0.0 0.0 0.0 5.033" Properties=species:S:1:pos:R:3:spacegroup_kinds:I:1:forces:R:3 spacegroup="P 4/n m m" unit_cell=conventional config_type=mackinawite_bulk_rattle_0.05_10 energy=-27.815443394213972 stress="0.04320649333036859 0.0022433343026262544 0.004324784533681977 0.0022433343026262544 0.04627100566628399 0.013397677755896223 0.004324784533681977 0.013397677755896223 0.02386594167996852" pbc="T T T"
Fe       0.02597379      -0.06343752       0.01202100        0       0.03914901       1.08242289       0.06420352
Fe       1.79680213       1.83786720       0.01971969        0       1.29061404      -0.46161654      -0.07833779
S        0.06395661       1.86998682       1.28681756        1      -0.78447859      -0.68536320      -0.87155991
S        1.91028945      -0.02094634       3.79672870        1      -0.54521015       0.06461448       0.88687702
4
Lattice="3.674 0.0 0.0 0.0 3.674 0.0 0.0 0.0 5.033" Properties=species:S:1:pos:R:3:spacegroup_kinds:I:1:forces:R:3 spacegroup="P 4/n m m" unit_cell=conventional config_type=mackinawite_bulk_rattle_0.05_11 energy=-27.708288830973085 stress="0.018233423308643373 0.00027845333842454177 0.0022189973954438126 0.00027845333842454177 0.06883318682888956 0.002957909868864687 0.0022189973954438126 0.002957909868864687 0.036602277358561135" pbc="T T T"
Fe       0.01029324       0.05833809      -0.10363199        0      -0.47517111      -0.29598695       0.33765637
Fe       1.80536564       1.88685632       0.11972769        0       0.28740964      -0.13541614      -1.79504231
S       -0.02706168       1.87463527       1.20206901        1       0.00579254       0.12978507      -0.33751585
S        1.82172797      -0.02009480       3.69281177        1       0.18164348       0.30102179       1.79643432
4
Lattice="3.674 0.0 0.0 0.0 3.674 0.0 0.0 0.0 5.033" Properties=species:S:1:pos:R:3:spacegroup_kinds:I:1:forces:R:3 spacegroup="P 4/n m m" unit_cell=conventional config_type=mackinawite_bulk_rattle_0.05_12 energy=-27.710404206494744 stress="0.06279278548209731 -0.0006126358093788899 -0.007032958044681955 -0.0006126358093788899 0.07151819334672611 -0.008144951659838858 -0.007032958044681955 -0.008144951659838858 0.05324667529105132" pbc="T T T"
Fe      -0.09261054      -0.05404995       0.00392819        0       0.50013409       0.43285737       0.21068296
Fe       1.76929322       1.86830742       0.03666938        0      -0.08342974      -0.62620181      -0.20339745
S       -0.07354893       1.75322902       1.33873798        1      -0.00963550       0.34119855      -1.72759183
S        1.80312695       0.03387776       3.73268987        1      -0.40463735      -0.14893265       1.72054676
4
Lattice="3.674 0.0 0.0 0.0 3.674 0.0 0.0 0.0 5.033" Properties=species:S:1:pos:R:3:spacegroup_kinds:I:1:forces:R:3 spacegroup="P 4/n m m" unit_cell=conventional config_type=mackinawite_bulk_rattle_0.05_13 energy=-27.500151758320456 stress="0.07138188530097551 0.00021183337082917634 -0.004695364813785638 0.00021183337082917634 0.07830904773897786 -0.006183707646790185 -0.004695364813785638 -0.006183707646790185 0.07066871216587448" pbc="T T T"
Fe      -0.08118656      -0.00508920      -0.09048955        0       0.93461729       0.32546862       0.80625167
Fe       1.85013269       1.84999763      -0.01905432        0      -0.48148572       0.25528205       0.15619775
S       -0.00011449       1.85408076       1.35446521        1      -0.08593319      -0.10168778      -2.65481093
S        1.81894499       0.08282227       3.66396294        1      -0.36800896      -0.48040122       1.69258258
4
Lattice="3.674 0.0 0.0 0.0 3.674 0.0 0.0 0.0 5.033" Properties=species:S:1:pos:R:3:spacegroup_kinds:I:1:forces:R:3 spacegroup="P 4/n m m" unit_cell=conventional config_type=mackinawite_bulk_rattle_0.05_14 energy=-27.865678797980976 stress="0.05746471666109814 0.0005855538905208889 -0.0028654961911135646 0.0005855538905208889 0.020503199429642238 -0.003976112261153316 -0.0028654961911135646 -0.003976112261153316 0.021654808660142202" pbc="T T T"
Fe      -0.05188216       0.02968291       0.05513403        0       0.48276831      -0.07095102      -0.20675662
Fe       1.81139111       1.82372901      -0.08085030        0      -0.10746660       0.87584379       1.23198858
S       -0.01357572       1.88427771       1.27823696        1      -0.11473886      -0.25029102      -1.24100014
S        1.82370264       0.03436468       3.82583625        1      -0.26060287      -0.55453313       0.20932383
4
Lattice="3.674 0.0 0.0 0.0 3.674 0.0 0.0 0.0 5.033" Properties=species:S:1:pos:R:3:spacegroup_kinds:I:1:forces:R:3 spacegroup="P 4/n m m" unit_cell=conventional config_type=mackinawite_bulk_rattle_0.15_00 energy=-27.42496395256973 stress="0.0721130557052059 0.0019029687124682562 0.005132756592325189 0.0019029687124682562 0.0307355205339721 0.03323818914466611 0.005132756592325189 0.03323818914466611 0.0438572903507321" pbc="T T T"
Fe       0.07450712      -0.02073965       0.09715328        0       1.08344699       1.33530729      -2.01303337
Fe       2.06545448       1.80187699      -0.03512054        0      -1.06474421       0.16505510      -0.19112665
S        0.23688192       1.95211521       1.23916544        1      -0.23470245      -1.76175593      -0.26381810
S        1.91838401      -0.06951265       3.65355394        1       0.21619210       0.26113252       2.46944628
4
Lattice="3.674 0.0 0.0 0.0 3.674 0.0 0.0 0.0 5.033" Properties=species:S:1:pos:R:3:spacegroup_kinds:I:1:forces:R:3 spacegroup="P 4/n m m" unit_cell=conventional config_type=mackinawite_bulk_rattle_0.15_01 energy=-26.523147372074902 stress="0.0326413099363181 0.014826604585240308 0.020682676844803537 0.014826604585240308 0.005393521283932851 0.060926207929191824 0.020682676844803537 0.060926207929191824 0.02469626773686071" pbc="T T T"
Fe       0.03860999      -0.13627221      -0.05677547        0      -1.70658044       2.78536013       0.58831294
Fe       1.75676266       1.96571100      -0.06195150        0       1.04580619      -2.89168383       2.25024492
S        0.07472829       2.13852989       1.49901583        1      -0.28257228      -1.60127455      -2.32908940
S        1.77111777      -0.05196568       3.79171135        1       0.94230319       1.70704114      -0.50969611
4
Lattice="3.674 0.0 0.0 0.0 3.674 0.0 0.0 0.0 5.033" Properties=species:S:1:pos:R:3:spacegroup_kinds:I:1:forces:R:3 spacegroup="P 4/n m m" unit_cell=conventional config_type=mackinawite_bulk_rattle_0.15_02 energy=-26.224480418562543 stress="0.008021703082191734 -0.02228598100772789 0.025972213391708014 -0.02228598100772789 -0.014340832893181674 -0.03229512129123007 0.025972213391708014 -0.03229512129123007 -0.003933054153122589" pbc="T T T"
Fe      -0.11259221       0.19745360       0.18692100        0      -0.81682930      -3.83894217      -1.35228761
Fe       1.59626264       1.61677845      -0.25726057        0       2.48374859       2.59456138      -0.09600423
S        0.27881755       1.85013820       1.30173827        1      -1.29056347       1.99388558       0.69007239
S        1.92032075      -0.14451055       3.69636518        1      -0.37424438      -0.75077686       0.75660385
4
Lattice="3.674 0.0 0.0 0.0 3.674 0.0 0.0 0.0 5.033" Properties=species:S:1:pos:R:3:spacegroup_kinds:I:1:forces:R:3 spacegroup="P 4/n m m" unit_cell=conventional config_type=mackinawite_bulk_rattle_0.15_03 energy=-26.163609254942884 stress="0.03861011834345589 0.00972014283689542 -0.01072223362719731 0.00972014283689542 -0.05860152278776558 -0.06669797814571071 -0.01072223362719731 -0.06669797814571071 0.030755040438911634" pbc="T T T"
Fe       0.00395622       0.03904826      -0.05927183        0       0.85012760      -1.85450173       1.19435950
Fe       1.80635486       1.64625510      -0.38953179        0       0.02219932       5.69359885       4.48510636
S        0.04345214       1.70600430       1.36869750        1      -0.09524348       0.75109487      -3.15587883
S        1.97726583      -0.00235271       3.76235279        1      -0.77618538      -4.58852371      -2.52097745
4
Lattice="3.674 0.0 0.0 0.0 3.674 0.0 0.0 0.0 5.033" Properties=species:S:1:pos:R:3:spacegroup_kinds:I:1:forces:R:3 spacegroup="P 4/n m m" unit_cell=conventional config_type=mackinawite_bulk_rattle_0.15_04 energy=-26.88476084719807 stress="0.0616900447781616 -0.009205383321788455 0.006871179580636025 -0.009205383321788455 -0.01330606538744774 -0.02163034563294967 0.006871179580636025 -0.02163034563294967 0.011220719458628667" pbc="T T T"
Fe       0.08773138       0.18467936       0.12328504        0      -1.08866663      -4.12852644      -2.66582252
Fe       1.71711575       1.89880798      -0.02642349        0       2.08818417      -0.95369379       0.69013723
S       -0.01097580       1.75215004       1.29556681        1      -0.58218531       3.29414327       0.51241260
S        1.96559516      -0.12933349       3.72588556        1      -0.41673893       1.78535729       1.46072999
4
Lattice="3.674 0.0 0.0 0.0 3.674 0.0 0.0 0.0 5.033" Properties=species:S:1:pos:R:3:spacegroup_kinds:I:1:forces:R:3 spacegroup="P 4/n m m" unit_cell=conventional config_type=mackinawite_bulk_rattle_0.15_05 energy=-26.449485771396656 stress="-0.07952470578404885 0.01831157643334144 -0.06165056300682256 0.01831157643334144 0.017434872183452403 -0.010782462889862945 -0.06165056300682256 -0.010782462889862945 -0.028732071617626018" pbc="T T T"
Fe      -0.12720142       0.19588595       0.13863119        0       2.00862370      -3.76146223      -0.69652987
Fe       1.93306177       1.67878945       0.26966411        0      -6.36664264       2.04280468      -3.65096521
S       -0.15191801       1.96054350       1.26538905        1       4.41807517       1.04854974       3.13571175
S        1.74812941      -0.20905906       3.88904035        1      -0.06346532       0.66863063       1.21407899
4
Lattice="3.674 0.0 0.0 0.0 3.674 0.0 0.0 0.0 5.033" Properties=species:S:1:pos:R:3:spacegroup_kinds:I:1:forces:R:3 spacegroup="P 4/n m m" unit_cell=conventional config_type=mackinawite_bulk_rattle_0.15_06 energy=-25.42600903513659 stress="0.035118447101250325 -0.012582398034757076 -0.060408187006245895 -0.012582398034757076 0.0526398477409488 -0.010745826424205608 -0.060408187006245895 -0.010745826424205608 0.03499129657011183" pbc="T T T"
Fe      -0.14904470      -0.15951012      -0.09571139        0       0.83438410       1.26631944       0.27561019
Fe       1.99623830       1.81338938       0.16405927        0      -3.78487032       0.12561002      -2.29808083
S       -0.31122810       1.94209495       1.56078239        1       3.11604781      -0.26218987      -0.37045669
S        1.77739988       0.34856954       3.57345831        1      -0.16909208      -1.12770294       2.38925295
4
Lattice="3.674 0.0 0.0 0.0 3.674 0.0 0.0 0.0 5.033" Properties=species:S:1:pos:R:3:spacegroup_kinds:I:1:forces:R:3 spacegroup="P 4/n m m" unit_cell=conventional config_type=mackinawite_bulk_rattle_0.15_07 energy=-25.935019498632553 stress="-0.006276597390484108 0.02573696670264133 -0.06265116471007133 0.02573696670264133 -0.046361812423730824 -0.022310014720113652 -0.06265116471007133 -0.022310014720113652 -0.04329362120713241" pbc="T T T"
Fe      -0.15647386      -0.12312835       0.09977188        0       3.94642788       0.73628798      -0.25145726
Fe       2.11039403       1.62076249       0.03507121        0      -3.77477478       3.66137591       0.94334677
S        0.05094290       1.87168206       1.30809773        1       1.50117263      -1.69096189       0.39991438
S        2.10757717       0.20517660       3.68420908        1      -1.67288506      -2.70514694      -1.09335089
4
Lattice="3.674 0.0 0.0 0.0 3.674 0.0 0.0 0.0 5.033" Properties=species:S:1:pos:R:3:spacegroup_kinds:I:1:forces:R:3 spacegroup="P 4/n m m" unit_cell=conventional config_type=mackinawite_bulk_rattle_0.15_08 energy=-27.395725087094572 stress="-0.01908562440739241 -8.636324886306213e-05 0.011461529465007038 -8.636324886306213e-05 -0.03198186341356962 0.06286440357771607 0.011461529465007038 0.06286440357771607 -0.04702117386107975" pbc="T T T"
Fe      -0.23405282      -0.00464664      -0.09313926        0       0.66208947       2.94541910       0.29136930
Fe       1.61731293       2.04879192      -0.07150982        0       0.83843927      -3.98246237       1.00062949
S       -0.11707038       1.99754016       1.11724271        1      -1.05970339      -1.37300280       0.69642414
S        1.63787816       0.01895065       3.85274246        1      -0.44007512       2.40957232      -1.98793883
4
Lattice="3.674 0.0 0.0 0.0 3.674 0.0 0.0 0.0 5.033" Properties=species:S:1:pos:R:3:spacegroup_kinds:I:1:forces:R:3 spacegroup="P 4/n m m" unit_cell=conventional config_type=mackinawite_bulk_rattle_0.15_09 energy=-26.521994687444558 stress="0.04252935604955385 -0.005149521181709707 -0.013407022836417407 -0.005149521181709707 0.008322021127469778 -0.039164034236101146 -0.013407022836417407 -0.039164034236101146 0.015515078438503686" pbc="T T T"
Fe      -0.04357548       0.01681921       0.18761927        0       0.14942892      -2.91918827      -2.07553695
Fe       1.63286650       1.85198993      -0.00719867        0       2.64424468      -0.51364167      -0.84654848
S       -0.05343445       1.67371614       1.25693395        1      -0.98848543       3.05526765       0.82809968
S        2.22525999      -0.07584762       3.63576702        1      -1.80606307       0.37841346       2.09494335
4
Lattice="3.71074 0.0 0.0 0.0 3.71074 0.0 0.0 0.0 5.08333" Properties=species:S:1:pos:R:3:spacegroup_kinds:I:1:forces:R:3 spacegroup="P 4/n m m" unit_cell=conventional config_type=mackinawite_bulk_strain_+1pct energy=-27.662569291520082 stress="0.08312712289497141 0.0 -7.777098028004566e-20 0.0 0.08312712289497141 0.0 -7.777098028004566e-20 0.0 0.06366383726562065" pbc="T T T"
Fe       0.00000000       0.00000000       0.00000000        0       0.00000000       0.00000000       0.00000000
Fe       1.85537000       1.85537000       0.00000000        0       0.00000000       0.00000000       0.00000000
S        0.00000000       1.85537000       1.32268247        1       0.00000000       0.00000000      -1.95244291
S        1.85537000       0.00000000       3.76064753        1       0.00000000       0.00000000       1.95244291
4
Lattice="3.74748 0.0 0.0 0.0 3.74748 0.0 0.0 0.0 5.133660000000001" Properties=species:S:1:pos:R:3:spacegroup_kinds:I:1:forces:R:3 spacegroup="P 4/n m m" unit_cell=conventional config_type=mackinawite_bulk_strain_+2pct energy=-27.493361130470362 stress="0.09782378823869083 0.0 -1.5554196056009133e-19 0.0 0.09782378823869083 0.0 -1.5554196056009133e-19 0.0 0.07439962895526409" pbc="T T T"
Fe       0.00000000       0.00000000       0.00000000        0       0.00000000       0.00000000       0.00000000
Fe       1.87374000       1.87374000       0.00000000        0       0.00000000       0.00000000       0.00000000
S        0.00000000       1.87374000       1.33577833        1       0.00000000       0.00000000      -2.22651879
S        1.87374000       0.00000000       3.79788167        1       0.00000000       0.00000000       2.22651879
4
Lattice="3.78422 0.0 0.0 0.0 3.78422 0.0 0.0 0.0 5.1839900000000005" Properties=species:S:1:pos:R:3:spacegroup_kinds:I:1:forces:R:3 spacegroup="P 4/n m m" unit_cell=conventional config_type=mackinawite_bulk_strain_+3pct energy=-27.293250812476703 stress="0.1100916722994285 0.0 0.0 0.0 0.1100916722994285 0.0 0.0 0.0 0.08339750922982572" pbc="T T T"
Fe       0.00000000       0.00000000       0.00000000        0       0.00000000       0.00000000       0.00000000
Fe       1.89211000       1.89211000       0.00000000        0       0.00000000       0.00000000       0.00000000
S        0.00000000       1.89211000       1.34887420        1       0.00000000       0.00000000      -2.46993832
S        1.89211000       0.00000000       3.83511580        1       0.00000000       0.00000000       2.46993832
4
Lattice="3.63726 0.0 0.0 0.0 3.63726 0.0 0.0 0.0 4.982670000000001" Properties=species:S:1:pos:R:3:spacegroup_kinds:I:1:forces:R:3 spacegroup="P 4/n m m" unit_cell=conventional config_type=mackinawite_bulk_strain_-1pct energy=-27.89612018965034 stress="0.04484594318104949 0.0 -3.4996941126020547e-19 0.0 0.04484594318104949 0.0 -3.4996941126020547e-19 0.0 0.03585188507819034" pbc="T T T"
Fe       0.00000000       0.00000000       0.00000000        0       0.00000000       0.00000000       0.00000000
Fe       1.81863000       1.81863000       0.00000000        0       0.00000000       0.00000000       0.00000000
S        0.00000000       1.81863000       1.29649073        1       0.00000000       0.00000000      -1.30036560
S        1.81863000       0.00000000       3.68617927        1       0.00000000       0.00000000       1.30036560
4
Lattice="3.60052 0.0 0.0 0.0 3.60052 0.0 0.0 0.0 4.93234" Properties=species:S:1:pos:R:3:spacegroup_kinds:I:1:forces:R:3 spacegroup="P 4/n m m" unit_cell=conventional config_type=mackinawite_bulk_strain_-2pct energy=-27.9508890987253 stress="0.0203521000831616 0.0 -1.166564704200685e-19 0.0 0.020352100083161604 0.0 -1.166564704200685e-19 0.0 0.01814376044704489" pbc="T T T"
Fe       0.00000000       0.00000000       0.00000000        0       0.00000000       0.00000000       0.00000000
Fe       1.80026000       1.80026000       0.00000000        0       0.00000000       0.00000000       0.00000000
S        0.00000000       1.80026000       1.28339487        1       0.00000000       0.00000000      -0.91825875
S        1.80026000       0.00000000       3.64894513        1       0.00000000       0.00000000       0.91825875
4
Lattice="3.56378 0.0 0.0 0.0 3.56378 0.0 0.0 0.0 4.88201" Properties=species:S:1:pos:R:3:spacegroup_kinds:I:1:forces:R:3 spacegroup="P 4/n m m" unit_cell=conventional config_type=mackinawite_bulk_strain_-3pct energy=-27.95826447637856 stress="-0.008317518856108765 0.0 4.66625881680274e-19 0.0 -0.008317518856108765 0.0 4.66625881680274e-19 0.0 -0.002519535257066689" pbc="T T T"
Fe       0.00000000       0.00000000       0.00000000        0       0.00000000       0.00000000       0.00000000
Fe       1.78189000       1.78189000       0.00000000        0       0.00000000       0.00000000       0.00000000
S        0.00000000       1.78189000       1.27029900        1       0.00000000       0.00000000      -0.48591125
S        1.78189000       0.00000000       3.61171100        1       0.00000000       0.00000000       0.48591125
4
Lattice="3.674 0.07348 0.0 0.0 3.674 0.0 0.0 0.0 5.033" Properties=species:S:1:pos:R:3:spacegroup_kinds:I:1:forces:R:3 spacegroup="P 4/n m m" unit_cell=conventional config_type=mackinawite_bulk_shear_00 energy=-27.791645563623998 stress="0.06525530474440165 0.010581460843067525 0.0 0.010581460843067525 0.06556924333979426 0.0 0.0 0.0 0.050657035384903085" pbc="T T T"
Fe       0.00000000       0.00000000       0.00000000        0       0.00000000       0.00000000      -0.00124651
Fe       1.83700000       1.87374000       0.00000000        0       0.00000000       0.00000000       0.00124651
S        0.00000000       1.83700000       1.30958660        1       0.00000000       0.00000000      -1.64381551
S        1.83700000       0.03674000       3.72341340        1       0.00000000       0.00000000       1.64381551
4
Lattice="3.674 0.0 0.07348 0.0 3.674 0.0 0.0 0.0 5.033" Properties=species:S:1:pos:R:3:spacegroup_kinds:I:1:forces:R:3 spacegroup="P 4/n m m" unit_cell=conventional config_type=mackinawite_bulk_shear_01 energy=-27.793129560063953 stress="0.06516051735120726 0.0 0.007809715674014078 0.0 0.06577971168163771 0.0 0.007809715674014078 0.0 0.05093053354728581" pbc="T T T"
Fe       0.00000000       0.00000000       0.00000000        0      -0.09518388       0.00000000       0.00709432
Fe       1.83700000       1.83700000       0.03674000        0       0.09518388       0.00000000      -0.00709432
S        0.00000000       1.83700000       1.30958660        1      -0.14175611       0.00000000      -1.63387458