#     Step Nr.          Time[fs]        Kin.[a.u.]          Temp[K]            Pot.[a.u.]        Cons Qty[a.u.]        UsedTime[s]
         0            0.000000         0.102604817       300.000000000     -2616.260550352     -2616.157470512         0.000000000
         1            0.500000         0.104011709       304.113526475     -2616.262063448     -2616.157506467        85.381304197
         2            1.000000         0.105224176       307.658583990     -2616.263367487     -2616.157526814        29.356896426
         3            1.500000         0.105784311       309.296328135     -2616.263998601     -2616.157525820        29.458014708
         4            2.000000         0.105533626       308.563365812     -2616.263802723     -2616.157508377        30.866950353
         5            2.500000         0.104570464       305.747236267     -2616.262885465     -2616.157482285        32.246675541
         6            3.000000         0.103147442       301.586547194     -2616.261503537     -2616.157452090        32.110194890
         7            3.500000         0.101594577       297.046219767     -2616.259988993     -2616.157420103        33.268788707
         8            4.000000         0.100269468       293.171814346     -2616.258702369     -2616.157389305        30.900869192
         9            4.500000         0.099497253       290.913982772     -2616.257975117     -2616.157365799        31.001711568
        10            5.000000         0.099476710       290.853918037     -2616.258014102     -2616.157357264        30.971303925
        11            5.500000         0.100175766       292.897844480     -2616.258791415     -2616.157367360        33.387502387
        12            6.000000         0.101288309       296.150740421     -2616.259996215     -2616.157390941        32.096550327
        13            6.500000         0.102325347       299.182872946     -2616.261123806     -2616.157412137        32.104055688
        14            7.000000         0.102852981       300.725591565     -2616.261718985     -2616.157409795        32.103606368
        15            7.500000         0.102788056       300.535761621     -2616.261685364     -2616.157371033        33.355252625
        16            8.000000         0.102549365       299.837867704     -2616.261453837     -2616.157308212        32.207321456
        17            8.500000         0.102852738       300.724880793     -2616.261777357     -2616.157258338        32.169741509
        18            9.000000         0.104187804       304.628397842     -2616.263178970     -2616.157254273        33.375110131
        19            9.500000         0.106377538       311.030830774     -2616.265478687     -2616.157292339        32.139293185
        20           10.000000         0.108630109       317.616984722     -2616.267848402     -2616.157335838        32.173955929
        21           10.500000         0.110039619       321.738165476     -2616.269345705     -2616.157348400        32.199910197
        22           11.000000         0.110110958       321.946750702     -2616.269463115     -2616.157318328        32.241868628
        23           11.500000         0.108961662       318.586392834     -2616.268329743     -2616.157258074        33.367455897
        24           12.000000         0.107162680       313.326457953     -2616.266540552     -2616.157192368        32.250414542
        25           12.500000         0.105387984       308.137532502     -2616.264791775     -2616.157143788        32.176887402
        26           13.000000         0.104096500       304.361440198     -2616.263550428     -2616.157120341        32.160504490
        27           13.500000         0.103415524       302.370375575     -2616.262936749     -2616.157114654        32.185712782
        28           14.000000         0.103241347       301.861112015     -2616.262835476     -2616.157114816        32.169106085
        29           14.500000         0.103405386       302.340733569     -2616.263075534     -2616.157118050        32.190348801
        30           15.000000         0.103737459       303.311662689     -2616.263492981     -2616.157130409        32.147833458
        31           15.500000         0.104014182       304.120755710     -2616.263868316     -2616.157155720        32.185919516
        32           16.000000         0.103933039       303.883508175     -2616.263890403     -2616.157185498        32.098781834
        33           16.500000         0.103242200       301.863605417     -2616.263286755     -2616.157199434        32.175026152
        34           17.000000         0.101989230       298.200120886     -2616.262088877     -2616.157181917        34.605553302
        35           17.500000         0.100660813       294.316043817     -2616.260791270     -2616.157141050        33.425560295
        36           18.000000         0.099971615       292.300940719     -2616.260140799     -2616.157108891        32.287517699
        37           18.500000         0.100362644       293.444247389     -2616.260600660     -2616.157107053        35.745400847
        38           19.000000         0.101646280       297.197390505     -2616.261967375     -2616.157118966        32.225066027
        39           19.500000         0.103155805       301.611000255     -2616.263536487     -2616.157106435        32.203552085
        40           20.000000         0.104224432       304.735494404     -2616.264617198     -2616.157045455        32.113746616
        41           20.500000         0.104531667       305.633798857     -2616.264892521     -2616.156939906        32.143712930
        42           21.000000         0.104114997       304.415524323     -2616.264417648     -2616.156808000        30.953006402
        43           21.500000         0.103188858       301.707640274     -2616.263423248     -2616.156666425        30.933172306
        44           22.000000         0.101977906       298.167011323     -2616.262143371     -2616.156524903        30.997554419
        45           22.500000         0.100654422       294.297357595     -2616.260753811     -2616.156387146        32.203787060
        46           23.000000         0.099362284       290.519353977     -2616.259400309     -2616.156255110        32.216970043
        47           23.500000         0.098256408       287.285948994     -2616.258243098     -2616.156134096        33.310156486
        48           24.000000         0.097483808       285.026992732     -2616.257438419     -2616.156033194        30.988585766
        49           24.500000         0.097094096       283.887536005     -2616.257044170     -2616.155960473        30.945561222
        50           25.000000         0.096952846       283.474545561     -2616.256925578     -2616.155915382        32.199312934
        51           25.500000         0.096763831       282.921894899     -2616.256774577     -2616.155886020        32.224878533
        52           26.000000         0.096241851       281.395708474     -2616.256288442     -2616.155855002        32.147087182
        53           26.500000         0.095343139       278.768020582     -2616.255415449     -2616.155814640        32.099509740
        54           27.000000         0.094359532       275.892110400     -2616.254459918     -2616.155777612        32.155831290
        55           27.500000         0.093746688       274.100253746     -2616.253903770     -2616.155770116        32.091378955
        56           28.000000         0.093785695       274.214304869     -2616.254047135     -2616.155810871        32.168682766
        57           28.500000         0.094373741       275.933654527     -2616.254780373     -2616.155892640        32.173522120
        58           29.000000         0.095148970       278.200300808     -2616.255719685     -2616.155993210        32.195529593
        59           29.500000         0.095807360       280.125327460     -2616.256549760     -2616.156101239        32.127943971
        60           30.000000         0.096277616       281.500280876     -2616.257205607     -2616.156223107        32.127978652
        61           30.500000         0.096625413       282.517183160     -2616.257763183     -2616.156369181        33.435768824
        62           31.000000         0.096858777       283.199503298     -2616.258226872     -2616.156535882        32.207315146
        63           31.500000         0.096852052       283.179839944     -2616.258452518     -2616.156704816        32.209273878
        64           32.000000         0.096439532       281.973695431     -2616.258248578     -2616.156850362        32.199071859
        65           32.500000         0.095578183       279.455251143     -2616.257550113     -2616.156950905        32.150719150
        66           33.000000         0.094447193       276.148418868     -2616.256525313     -2616.156995720        32.136182668
        67           33.500000         0.093405976       273.104065083     -2616.255535051     -2616.156986364        32.141742247
        68           34.000000         0.092814652       271.375130455     -2616.254949581     -2616.156932836        32.183714519
        69           34.500000         0.092811635       271.366310175     -2616.254914583     -2616.156842092        32.159663722
        70           35.000000         0.093207441       272.523583278     -2616.255237550     -2616.156710798        32.244381792
        71           35.500000         0.093604078       273.683283881     -2616.255509294     -2616.156527618        32.114924911
        72           36.000000         0.093673487       273.886226259     -2616.255397970     -2616.156288854        32.125950848
        73           36.500000         0.093385093       273.043008937     -2616.254886982     -2616.156008696        32.103950216
        74           37.000000         0.093006118       271.934947056     -2616.254274575     -2616.155718312        32.169394501
        75           37.500000         0.092873070       271.545935099     -2616.253929967     -2616.155450380        32.149951144
        76           38.000000         0.093126448       272.286770571     -2616.254009113     -2616.155220168        32.164421454
        77           38.500000         0.093654051       273.829399110     -2616.254393314     -2616.155020967        33.360424846
        78           39.000000         0.094273031       275.639194726     -2616.254891478     -2616.154844409        32.131352324
        79           39.500000         0.094909891       277.501270998     -2616.255435409     -2616.154695736        33.288972661
        80           40.000000         0.095581026       279.463562626     -2616.256054480     -2616.154587886        32.161103843
        81           40.500000         0.096245987       281.407801477     -2616.256713173     -2616.154525757        32.115498493
        82           41.000000         0.096729432       282.821317219     -2616.257227797     -2616.154501026        32.127863799
        83           41.500000         0.096804350       283.040364728     -2616.257354743     -2616.154497248        32.112062380
        84           42.000000         0.096364992       281.755753107     -2616.256975341     -2616.154501766        32.149497374
        85           42.500000         0.095534741       279.328232051     -2616.256211002     -2616.154512883        32.215789518
        86           43.000000         0.094610167       276.624926107     -2616.255363685     -2616.154536159        33.307966379
        87           43.500000         0.093896752       274.539017326     -2616.254739740     -2616.154572463        32.124934466
        88           44.000000         0.093582524       273.620264427     -2616.254520600     -2616.154615057        34.596212452
        89           44.500000         0.093712215       273.999459106     -2616.254741458     -2616.154654175        34.633301968
        90           45.000000         0.094200594       275.427402654     -2616.255310741     -2616.154683247        34.548494877
        91           45.500000         0.094844381       277.309732561     -2616.256015471     -2616.154692416        34.569874446
        92           46.000000         0.095389173       278.902614651     -2616.256586337     -2616.154666735        34.560788401
        93           46.500000         0.095676894       279.743864789     -2616.256853738     -2616.154594752        34.565722047
        94           47.000000         0.095757421       279.979315118     -2616.256871789     -2616.154480820        34.547326612
        95           47.500000         0.095830385       280.192647901     -2616.256855668     -2616.154340540        33.388429637
        96           48.000000         0.096074784       280.907231452     -2616.256995315     -2616.154184804        32.165152640
        97           48.500000         0.096552365       282.303602177     -2616.257355575     -2616.154016594        32.119169002
        98           49.000000         0.097235408       284.300709031     -2616.257913033     -2616.153840078        32.145500098
        99           49.500000         0.098053131       286.691600913     -2616.258606168     -2616.153664398        32.113076522
       100           50.000000         0.098894119       289.150514792     -2616.259333483     -2616.153499397        32.116800461
       101           50.500000         0.099604727       291.228218289     -2616.259947403     -2616.153351135        32.116489995
       102           51.000000         0.100033828       292.482841009     -2616.260297938     -2616.153220824        33.309344768
       103           51.500000         0.100121818       292.740109722     -2616.260326368     -2616.153109490        32.114682656
       104           52.000000         0.099974616       292.309714724     -2616.260144098     -2616.153022762        32.089385343
       105           52.500000         0.099834184       291.899113257     -2616.260007626     -2616.152975240        32.189769269
       106           53.000000         0.099909181       292.118393522     -2616.260141247     -2616.152982507        32.165120790
       107           53.500000         0.100175718       292.897705310     -2616.260521831     -2616.153045215        32.168236806
       108           54.000000         0.100353685       293.418052343     -2616.260847904     -2616.153141961        32.167042271
       109           54.500000         0.100120876       292.737355072     -2616.260770731     -2616.153246337        32.158172980
       110           55.000000         0.099356769       290.503228802     -2616.260156844     -2616.153345650        33.370645915
       111           55.500000         0.098183164       287.071796682     -2616.259125034     -2616.153437162        33.399006084
       112           56.000000         0.096843815       283.155756469     -2616.257910049     -2616.153512067        32.145826505
       113           56.500000         0.095624835       279.591653270     -2616.256781766     -2616.153554196        32.199863576
       114           57.000000         0.094835969       277.285137505     -2616.256044513     -2616.153558041        32.181885079
       115           57.500000         0.094706129       276.905504616     -2616.255932253     -2616.153528412        32.207672823
       116           58.000000         0.095213054       278.387671418     -2616.256421396     -2616.153463659        32.196818710
       117           58.500000         0.096055626       280.851217524     -2616.257199604     -2616.153352304        32.175014852
       118           59.000000         0.096826580       283.105362109     -2616.257852638     -2616.153187275        32.175074733
       119           59.500000         0.097207448       284.218961308     -2616.258069923     -2616.152976545        32.155443131
       120           60.000000         0.097037322       283.721538244     -2616.257708769     -2616.152738549        34.566074344
       121           60.500000         0.096290097       281.536772185     -2616.256759841     -2616.152490332        33.383794078
       122           61.000000         0.095071429       277.973584635     -2616.255341018     -2616.152244401        33.312374844
       123           61.500000         0.093665876       273.863973573     -2616.253749362     -2616.152013466        30.947133236
       124           62.000000         0.092535503       270.558944138     -2616.252469762     -2616.151820382        30.995374552
       125           62.500000         0.092142660       269.410332789     -2616.251995138     -2616.151695520        30.987984103
       126           63.000000         0.092630335       270.836217688     -2616.252487200     -2616.151657239        32.178671250
       127           63.500000         0.093622025       273.735758431     -2616.253555801     -2616.151691557        32.145946858
       128           64.000000         0.094385230       275.967249267     -2616.254429272     -2616.151759207        32.215288677
       129           64.500000         0.094266830       275.621063980     -2616.254416947     -2616.151822870        32.160781066
       130           65.000000         0.093062382       272.099452940     -2616.253293499     -2616.151862105        33.350179846
       131           65.500000         0.091113871       266.402319499     -2616.251392676     -2616.151869131        32.160233404
       132           66.000000         0.089172297       260.725469292     -2616.249465771     -2616.151844466        32.095254158
       133           66.500000         0.088106356       257.608829743     -2616.248390789     -2616.151797291        32.142416212
       134           67.000000         0.088510059       258.789192891     -2616.248771888     -2616.151737278        33.382625593
       135           67.500000         0.090376860       264.247419065     -2616.250593865     -2616.151655139        32.229275007
       136           68.000000         0.093095993       272.197725559     -2616.253215318     -2616.151519694        32.113619183
       137           68.500000         0.095804529       280.117051287     -2616.255743367     -2616.151300725        32.174144993
       138           69.000000         0.097806877       285.971594654     -2616.257474161     -2616.150990016        32.204949655
       139           69.500000         0.098777471       288.809453674     -2616.258093907     -2616.150599609        32.213175752
       140           70.000000         0.098733290       288.680276737     -2616.257637606     -2616.150147893        32.243945543
       141           70.500000         0.097934456       286.344614796     -2616.256381480     -2616.149651325        32.156888922
       142           71.000000         0.096821890       283.091650724     -2616.254781620     -2616.149125319        32.146658373
       143           71.500000         0.095965383       280.587361618     -2616.253429918     -2616.148592033        31.003354993
       144           72.000000         0.095923701       280.465490825     -2616.252916458     -2616.148082607        29.724673896
       145           72.500000         0.096986555       283.573103463     -2616.253561945     -2616.147627658        29.807139277
       146           73.000000         0.098940465       289.286024136     -2616.255165063     -2616.147238916        29.814273161
       147           73.500000         0.101078412       295.537036035     -2616.257007671     -2616.146904969        32.222441031
       148           74.000000         0.102499390       299.691747644     -2616.258169546     -2616.146606603        32.207957610
       149           74.500000         0.102507688       299.716009141     -2616.257942149     -2616.146331338        32.222264777
       150           75.000000         0.100909976       295.044557901     -2616.256127758     -2616.146075362        32.220161822
       151           75.500000         0.098142871       286.953984982     -2616.253169224     -2616.145845523        32.196019153
       152           76.000000         0.095191688       278.325201015     -2616.250075615     -2616.145665952        30.932354788
       153           76.500000         0.093222472       272.567530066     -2616.248054516     -2616.145578160        30.953564854
       154           77.000000         0.093002928       271.925618624     -2616.247904277     -2616.145612343        31.000483242
       155           77.500000         0.094481318       276.248195108     -2616.249565435     -2616.145760135        31.016873504
       156           78.000000         0.096869916       283.232069347     -2616.252211348     -2616.145982080        31.043869954
       157           78.500000         0.099127696       289.833455555     -2616.254764244     -2616.146241191        31.048908712
       158           79.000000         0.100423532       293.622272552     -2616.256373957     -2616.146518534        31.032896138
       159           79.500000         0.100337978       293.372126620     -2616.256610925     -2616.146804364        29.752069714
       160           80.000000         0.098874517       289.093201070     -2616.255467117     -2616.147087674        29.790834057
       161           80.500000         0.096422558       281.924066471     -2616.253318261     -2616.147355280        32.167248725
       162           81.000000         0.093691594       273.939166991     -2616.250866536     -2616.147600201        32.229398220
       163           81.500000         0.091534974       267.633557711     -2616.248970195     -2616.147827392        31.023997297
       164           82.000000         0.090622363       264.965230228     -2616.248309523     -2616.148047227        32.266283142
       165           82.500000         0.091087595       266.325493403     -2616.249016369     -2616.148257291        30.999657224
       166           83.000000         0.092407348       270.184237750     -2616.250542737     -2616.148432507        30.969170649
       167           83.500000         0.093643361       273.798142427     -2616.251916230     -2616.148538562        31.037502877
       168           84.000000         0.093889051       274.516499436     -2616.252206340     -2616.148551671        32.201386288
       169           84.500000         0.092651122       270.896995009     -2616.250912027     -2616.148464493        32.188746567
       170           85.000000         0.090042199       263.268924163     -2616.248151241     -2616.148282870        32.198692721
       171           85.500000         0.086766525       253.691379629     -2616.244650293     -2616.148029290        32.202918381
       172           86.000000         0.083844857       245.148890135     -2616.241468838     -2616.147742801        32.200688174
       173           86.500000         0.082114984       240.091019664     -2616.239477502     -2616.147456070        29.828619839
       174           87.000000         0.081818026       239.222763978     -2616.238915765     -2616.147167101        32.172856986
       175           87.500000         0.082591699       241.484858529     -2616.239394464     -2616.146848652        32.206866396
       176           88.000000         0.083788590       244.984376035     -2616.240241144     -2616.146475450        32.213365056
       177           88.500000         0.084782336       247.889927261     -2616.240817788     -2616.146035787        32.186071849
       178           89.000000         0.085113942       248.859490754     -2616.240657972     -2616.145522324        34.594701029
       179           89.500000         0.084566322       247.258337146     -2616.239537466     -2616.144928109        32.246760323
       180           90.000000         0.083243806       243.391513460     -2616.237557780     -2616.144250545        32.249782578
       181           90.500000         0.081610226       238.615188653     -2616.235193506     -2616.143500556        31.016710530
       182           91.000000         0.080377824       235.011842194     -2616.233186328     -2616.142707611        31.038880347
       183           91.500000         0.080196230       234.480891881     -2616.232225948     -2616.141911643        29.827236669
       184           92.000000         0.081262492       237.598470593     -2616.232539447     -2616.141142446        29.853120415
       185           92.500000         0.083128190       243.053472670     -2616.233682207     -2616.140403592        29.781956887
       186           93.000000         0.084891270       248.208434176     -2616.234738369     -2616.139681171        29.887073655
       187           93.500000         0.085649363       250.424976723     -2616.234794605     -2616.138964283        29.843661582
       188           94.000000         0.084918243       248.287297581     -2616.233369110     -2616.138255554        29.845188725
       189           94.500000         0.082838501       242.206467144     -2616.230616034     -2616.137568800        29.849160130
       190           95.000000         0.080142433       234.323596754     -2616.227294211     -2616.136930765        29.787945585
       191           95.500000         0.077867939       227.673343787     -2616.224480002     -2616.136379980        29.864613692
       192           96.000000         0.076873380       224.765413518     -2616.223065206     -2616.135949806        29.822790734
       193           96.500000         0.077418904       226.360435756     -2616.223314488     -2616.135644597        29.805077943
       194           97.000000         0.079118012       231.328356666     -2616.224819206     -2616.135442044        30.951895748
       195           97.500000         0.081243263       237.542247289     -2616.226827310     -2616.135317431        32.192799964
       196           98.000000         0.083092497       242.949109960     -2616.228624085     -2616.135258160        33.390157014
       197           98.500000         0.084210435       246.217782704     -2616.229750805     -2616.135260787        34.639092073
       198           99.000000         0.084474087       246.988659442     -2616.230084020     -2616.135324890        32.175553844
       199           99.500000         0.084107721       245.917463769     -2616.229850848     -2616.135453361        32.169149566
       200          100.000000         0.083628029       244.514921892     -2616.229578479     -2616.135656729        32.223811450
       201          100.500000         0.083672741       244.645650543     -2616.229922353     -2616.135952709        30.952766377
       202          101.000000         0.084716876       247.698533483     -2616.231373277     -2616.136357061        30.975029055
       203          101.500000         0.086811762       253.823644796     -2616.233981052     -2616.136868203        31.061611115
       204          102.000000         0.089536157       261.789338485     -2616.237302158     -2616.137463790        28.651345750
       205          102.500000         0.092194117       269.560786415     -2616.240610707     -2616.138113797        29.814226650
       206          103.000000         0.094094728       275.117866333     -2616.243188793     -2616.138791151        32.213944238
       207          103.500000         0.094762542       277.070446485     -2616.244534985     -2616.139469803        32.222530592
       208          104.000000         0.094079868       275.074419652     -2616.244503857     -2616.140121993        32.245899265
       209          104.500000         0.092384010       270.116002164     -2616.243412013     -2616.140727037        32.173036859
       210          105.000000         0.090415209       264.359544221     -2616.241997483     -2616.141282779        32.258552936
       211          105.500000         0.088999807       260.221136867     -2616.241096462     -2616.141799139        29.865644294
       212          106.000000         0.088604261       259.064622338     -2616.241170506     -2616.142271279        29.806178627
       213          106.500000         0.089114605       260.556788162     -2616.242072761     -2616.142666351        29.792322029
       214          107.000000         0.090010330       263.175743008     -2616.243240244     -2616.142941895        29.772931523
       215          107.500000         0.090728889       265.276694324     -2616.244080288     -2616.143067769        29.752059244
       216          108.000000         0.090938233       265.888782931     -2616.244247300     -2616.143030392        32.166156092
       217          108.500000         0.090622128       264.964542653     -2616.243723692     -2616.142828376        31.026630743
       218          109.000000         0.090027231       263.225159006     -2616.242762594     -2616.142468183        31.032378477
       219          109.500000         0.089544058       261.812440045     -2616.241765249     -2616.141960553        31.008700728
       220          110.000000         0.089563023       261.867889068     -2616.241138595     -2616.141322053        31.006277696
       221          110.500000         0.090322084       264.087260872     -2616.241139161     -2616.140571300        31.003780633
       222          111.000000         0.091791936       268.384872999     -2616.241752494     -2616.139723190        30.985196033
       223          111.500000         0.093679472       273.903725322     -2616.242694462     -2616.138786704        28.673776232
       224          112.000000         0.095556127       279.390763438     -2616.243549239     -2616.137774537        28.689188173
       225          112.500000         0.096999154       283.609942680     -2616.243914580     -2616.136707103        29.873043753
       226          113.000000         0.097669727       285.570589056     -2616.243473834     -2616.135606458        31.037093478
       227          113.500000         0.097389334       284.750763998     -2616.242063735     -2616.134487727        31.028234188