#     Step Nr.          Time[fs]        Kin.[a.u.]          Temp[K]            Pot.[a.u.]        Cons Qty[a.u.]        UsedTime[s]
         0            0.000000         0.102604817       300.000000000     -2616.283378025     -2616.180298186         0.000000000
         1            0.500000         0.103855501       303.656797652     -2616.284681615     -2616.180337055       140.568307112
         2            1.000000         0.104917323       306.761395451     -2616.285784193     -2616.180363614        40.363570475
         3            1.500000         0.105337256       307.989212855     -2616.286224152     -2616.180369337        40.887591677
         4            2.000000         0.104962476       306.893415172     -2616.285853109     -2616.180358762        44.154316404
         5            2.500000         0.103900954       303.789696691     -2616.284786971     -2616.180339926        48.083674563
         6            3.000000         0.102416953       299.450715616     -2616.283294544     -2616.180317451        46.034203969
         7            3.500000         0.100849683       294.868270840     -2616.281717573     -2616.180293909        42.680708806
         8            4.000000         0.099558279       291.092411956     -2616.280418563     -2616.180272659        45.584487665
         9            4.500000         0.098860091       289.051021680     -2616.279720408     -2616.180259189        42.560182575
        10            5.000000         0.098941524       289.289119865     -2616.279816868     -2616.180260761        44.041832324
        11            5.500000         0.099760948       291.684984881     -2616.280669803     -2616.180280762        40.369806821
        12            6.000000         0.101010508       295.338495411     -2616.281966405     -2616.180314158        41.783103916
        13            6.500000         0.102206968       298.836753070     -2616.283208068     -2616.180345553        43.876733019
        14            7.000000         0.102925204       300.936761071     -2616.283948812     -2616.180354120        44.559727294
        15            7.500000         0.103088789       301.415054953     -2616.284100043     -2616.180327768        44.949695217
        16            8.000000         0.103116148       301.495048087     -2616.284092649     -2616.180279000        44.987327568
        17            8.500000         0.103710047       303.231514147     -2616.284667110     -2616.180245504        46.216774449
        18            9.000000         0.105335888       307.985211332     -2616.286320843     -2616.180259184        41.102077871
        19            9.500000         0.107793125       315.169778843     -2616.288848729     -2616.180315336        42.729980761
        20           10.000000         0.110276855       322.431805825     -2616.291409541     -2616.180377574        44.790982519
        21           10.500000         0.111877979       327.113236013     -2616.293058019     -2616.180409789        43.626088305
        22           11.000000         0.112102716       327.770329172     -2616.293288198     -2616.180399947        44.642127336
        23           11.500000         0.111070779       324.753112930     -2616.292231640     -2616.180360076        44.917929825
        24           12.000000         0.109356330       319.740337492     -2616.290486457     -2616.180314261        42.409397686
        25           12.500000         0.107639032       314.719236009     -2616.288754392     -2616.180284633        47.693019356
        26           13.000000         0.106381955       311.043744036     -2616.287506061     -2616.180278711        44.539002414
        27           13.500000         0.105707719       309.072385397     -2616.286855679     -2616.180288021        44.382228500
        28           14.000000         0.105500063       308.465234405     -2616.286673517     -2616.180299023        42.761847079
        29           14.500000         0.105579476       308.697426064     -2616.286775890     -2616.180307494        44.481030571
        30           15.000000         0.105774770       309.268433369     -2616.286997138     -2616.180318933        52.402470315
        31           15.500000         0.105874502       309.560032642     -2616.287129779     -2616.180337301        51.319594152
        32           16.000000         0.105598318       308.752514714     -2616.286885609     -2616.180354779        50.684669117
        33           16.500000         0.104720186       306.184998022     -2616.286021031     -2616.180353869        52.809676039
        34           17.000000         0.103309748       302.061105585     -2616.284593182     -2616.180322146        50.711909976
        35           17.500000         0.101866155       297.840271551     -2616.283114536     -2616.180272975        48.723120945
        36           18.000000         0.101102425       295.607246735     -2616.282334365     -2616.180242570        44.051025249
        37           18.500000         0.101444089       296.606216631     -2616.282704641     -2616.180257249        48.489222409
        38           19.000000         0.102685855       300.236940984     -2616.284007117     -2616.180303918        43.529855481
        39           19.500000         0.104156068       304.535607003     -2616.285534359     -2616.180346719        42.991819294
        40           20.000000         0.105197878       307.581693005     -2616.286607496     -2616.180363642        43.751531261
        41           20.500000         0.105505966       308.482492922     -2616.286923463     -2616.180357018        43.299109505
        42           21.000000         0.105131773       307.388412524     -2616.286547259     -2616.180340502        45.793895751
        43           21.500000         0.104304594       304.969875115     -2616.285719250     -2616.180325244        42.105032403
        44           22.000000         0.103262281       301.922318697     -2616.284682014     -2616.180316018        44.373749059
        45           22.500000         0.102175274       298.744085604     -2616.283603466     -2616.180310319        42.768085259
        46           23.000000         0.101164354       295.788317396     -2616.282600106     -2616.180303866        41.588740213
        47           23.500000         0.100350811       293.409646989     -2616.281792913     -2616.180296332        42.134671617
        48           24.000000         0.099851762       291.950509576     -2616.281304908     -2616.180293584        48.541240254
        49           24.500000         0.099700310       291.507688314     -2616.281175918     -2616.180302305        42.596154843
        50           25.000000         0.099761768       291.687381220     -2616.281271249     -2616.180322448        43.051505434
        51           25.500000         0.099747807       291.646562714     -2616.281291752     -2616.180343183        47.225848670
        52           26.000000         0.099376568       290.561116983     -2616.280939286     -2616.180348260        44.776243568
        53           26.500000         0.098595653       288.277848301     -2616.280153557     -2616.180329833        44.814102499
        54           27.000000         0.097678745       285.596956047     -2616.279219073     -2616.180298770        44.245644377
        55           27.500000         0.097062045       283.793824171     -2616.278596172     -2616.180279195        45.530954448
        56           28.000000         0.097013111       283.650749586     -2616.278568006     -2616.180286645        44.180132177
        57           28.500000         0.097427255       284.861641547     -2616.279019846     -2616.180311007        46.390744624
        58           29.000000         0.097956444       286.408902414     -2616.279579809     -2616.180328394        46.811045127
        59           29.500000         0.098323414       287.481866063     -2616.279959345     -2616.180327518        47.403703195
        60           30.000000         0.098489158       287.966474597     -2616.280128293     -2616.180317250        46.450942688
        61           30.500000         0.098551691       288.149310436     -2616.280200080     -2616.180313026        44.394842415
        62           31.000000         0.098548319       288.139451420     -2616.280217652     -2616.180320495        46.318619457
        63           31.500000         0.098372100       287.624214903     -2616.280068016     -2616.180333622        46.654661451
        64           32.000000         0.097848416       286.093047925     -2616.279565833     -2616.180341722        45.223177231
        65           32.500000         0.096884560       283.274887560     -2616.278610232     -2616.180336688        44.046368119
        66           33.000000         0.095582432       279.467675275     -2616.277302517     -2616.180317976        45.931939427
        67           33.500000         0.094237102       275.534145812     -2616.275946467     -2616.180294323        44.971712326
        68           34.000000         0.093199948       272.501674486     -2616.274908624     -2616.180280879        44.747142739
        69           34.500000         0.092666176       270.941010252     -2616.274394960     -2616.180288356        43.567258988
        70           35.000000         0.092533958       270.554427121     -2616.274299678     -2616.180312723        47.676818077
        71           35.500000         0.092472248       270.373994954     -2616.274273476     -2616.180335692        45.376042418
        72           36.000000         0.092170236       269.490961200     -2616.273988354     -2616.180340086        45.733539249
        73           36.500000         0.091575369       267.751664903     -2616.273389095     -2616.180323278        44.668641184
        74           37.000000         0.090924370       265.848249497     -2616.272727183     -2616.180300051        44.519692190
        75           37.500000         0.090536125       264.713084497     -2616.272341208     -2616.180290097        50.493138895
        76           38.000000         0.090548464       264.749160593     -2616.272373572     -2616.180297945        46.773943807
        77           38.500000         0.090854175       265.643011200     -2616.272702982     -2616.180309467        43.735250928
        78           39.000000         0.091277477       266.880676605     -2616.273140076     -2616.180311052        44.103371942
        79           39.500000         0.091751698       268.267223931     -2616.273620915     -2616.180305423        43.432522191
        80           40.000000         0.092300727       269.872495767     -2616.274181441     -2616.180304623        43.734030028
        81           40.500000         0.092896295       271.613841432     -2616.274799170     -2616.180314430        43.831328581
        82           41.000000         0.093385054       273.042893401     -2616.275314507     -2616.180328598        46.120553167
        83           41.500000         0.093572224       273.590147985     -2616.275520724     -2616.180335207        47.474916202
        84           42.000000         0.093380983       273.030990402     -2616.275335044     -2616.180328345        45.961855909
        85           42.500000         0.092927870       271.706160815     -2616.274880147     -2616.180314198        44.988713799
        86           43.000000         0.092443808       270.290842454     -2616.274396502     -2616.180302331        44.710675149
        87           43.500000         0.092136386       269.391990058     -2616.274095880     -2616.180296917        46.271799993
        88           44.000000         0.092127907       269.367199015     -2616.274097291     -2616.180294632        45.346388855
        89           44.500000         0.092477267       270.388671086     -2616.274459390     -2616.180295192        45.056221021
        90           45.000000         0.093176994       272.434559411     -2616.275180455     -2616.180304301        45.418399229
        91           45.500000         0.094096268       275.122368398     -2616.276129609     -2616.180321861        45.453440160
        92           46.000000         0.094991306       277.739317898     -2616.277052109     -2616.180336897        45.108487419
        93           46.500000         0.095656499       279.684235422     -2616.277729128     -2616.180336211        45.507567640
        94           47.000000         0.096085198       280.937682209     -2616.278155800     -2616.180321611        43.242203481
        95           47.500000         0.096449585       282.003091481     -2616.278518630     -2616.180307441        45.724016844
        96           48.000000         0.096924364       283.391268062     -2616.279000805     -2616.180302181        44.891834570
        97           48.500000         0.097568901       285.275791095     -2616.279658175     -2616.180302294        44.800332439
        98           49.000000         0.098356352       287.578171706     -2616.280459386     -2616.180303249        46.607459403
        99           49.500000         0.099231501       290.136964661     -2616.281350858     -2616.180306668        46.797301889
       100           50.000000         0.100106585       292.695571880     -2616.280342790     -2616.178410501        44.491058366
       101           50.500000         0.100847725       294.862545651     -2616.281106911     -2616.178420368        48.617032279
       102           51.000000         0.101325386       296.259148536     -2616.281600759     -2616.178423364        47.129967408
       103           51.500000         0.101527609       296.850416685     -2616.281804881     -2616.178412029        45.473960062
       104           52.000000         0.101650056       297.208432399     -2616.281918791     -2616.178390240        46.289735188
       105           52.500000         0.102023186       298.299405241     -2616.282290586     -2616.178375620        47.285684461
       106           53.000000         0.102861505       300.750513177     -2616.283153156     -2616.178386508        44.958953619
       107           53.500000         0.104025899       304.155015747     -2616.284365576     -2616.178421039        43.935913838
       108           54.000000         0.105059353       307.176667437     -2616.285446241     -2616.178454610        44.210985188
       109           54.500000         0.105509313       308.492280722     -2616.285919658     -2616.178464322        43.092293070
       110           55.000000         0.105232469       307.682830600     -2616.285642691     -2616.178450439        44.154553595
       111           55.500000         0.104417254       305.299274995     -2616.284818850     -2616.178428117        47.448401632
       112           56.000000         0.103403307       302.334655832     -2616.283796804     -2616.178406438        45.813166799
       113           56.500000         0.102542661       299.818266884     -2616.282929244     -2616.178386064        44.910001866
       114           57.000000         0.102146195       298.659063707     -2616.282533466     -2616.178373373        42.492212914
       115           57.500000         0.102380986       299.345554882     -2616.282786815     -2616.178378563        44.325981064
       116           58.000000         0.103142505       301.572113530     -2616.283583619     -2616.178400415        46.021379785
       117           58.500000         0.104085785       304.330113053     -2616.284563713     -2616.178423684        43.856398646
       118           59.000000         0.104825788       306.493762745     -2616.285330883     -2616.178437190        44.149937634
       119           59.500000         0.105104948       307.309982249     -2616.285628335     -2616.178441751        51.079179297
       120           60.000000         0.104809858       306.447185366     -2616.285347805     -2616.178442575        45.891917958
       121           60.500000         0.103924332       303.858048383     -2616.284471706     -2616.178438339        44.772191813
       122           61.000000         0.102550402       299.840897691     -2616.283094293     -2616.178421338        46.653400914
       123           61.500000         0.100996442       295.297369719     -2616.281521149     -2616.178388826        47.611343069
       124           62.000000         0.099781531       291.745164415     -2616.280285492     -2616.178354937        47.155840052
       125           62.500000         0.099410864       290.661392883     -2616.279919625     -2616.178346702        43.254019598
       126           63.000000         0.100006471       292.402853023     -2616.280560165     -2616.178378590        42.043935112
       127           63.500000         0.101124506       295.671808571     -2616.281746432     -2616.178433670        41.756508299
       128           64.000000         0.101987740       298.195766074     -2616.282667461     -2616.178478185        44.275593854
       129           64.500000         0.101957488       298.107312450     -2616.282661432     -2616.178489077        46.900313141
       130           65.000000         0.100878815       294.953448492     -2616.281571243     -2616.178464301        45.288777302
       131           65.500000         0.099140099       289.869719430     -2616.279795318     -2616.178414020        46.991801395
       132           66.000000         0.097517362       285.125099645     -2616.278127969     -2616.178356561        42.840309959
       133           66.500000         0.096873480       283.242490905     -2616.277458875     -2616.178318660        43.850776733
       134           67.000000         0.097758603       285.830447969     -2616.278360282     -2616.178322249        42.071882072
       135           67.500000         0.100100969       292.679150415     -2616.280758424     -2616.178365127        44.972568808
       136           68.000000         0.103247461       301.878987119     -2616.283972497     -2616.178419457        45.866294349
       137           68.500000         0.106343178       310.930365500     -2616.287120414     -2616.178457998        43.300313532
       138           69.000000         0.108725998       317.897348761     -2616.289532774     -2616.178473512        42.107068144
       139           69.500000         0.110077608       321.849239596     -2616.290897159     -2616.178472005        45.955604865
       140           70.000000         0.110373599       322.714669544     -2616.291194633     -2616.178459083        43.829222032
       141           70.500000         0.109814019       321.078547210     -2616.290624450     -2616.178434074        41.316526401
       142           71.000000         0.108814626       318.156484493     -2616.289601270     -2616.178395967        45.464304269
       143           71.500000         0.107983435       315.726214260     -2616.288742134     -2616.178353809        46.406557439
       144           72.000000         0.107954368       315.641227406     -2616.288703440     -2616.178330012        45.211243816
       145           72.500000         0.109067862       318.896905656     -2616.289845599     -2616.178344424        44.627142528
       146           73.000000         0.111101722       324.843585373     -2616.291944787     -2616.178395278        43.991733183
       147           73.500000         0.113301222       331.274568624     -2616.294223102     -2616.178459322        44.053344100
       148           74.000000         0.114711753       335.398735056     -2616.295698898     -2616.178509553        43.856404618
       149           74.500000         0.114586806       335.033410274     -2616.295607023     -2616.178527480        43.712948325
       150           75.000000         0.112694255       329.499896662     -2616.293703796     -2616.178501764        42.338159050
       151           75.500000         0.109478473       320.097465151     -2616.290434813     -2616.178433840        42.294949333
       152           76.000000         0.105996112       309.915602619     -2616.286883056     -2616.178350150        44.010075098
       153           76.500000         0.103497333       302.609571600     -2616.284344780     -2616.178296748        44.706941381
       154           77.000000         0.102774045       300.494794371     -2616.283642512     -2616.178304074        42.288932213
       155           77.500000         0.103738687       303.315253631     -2616.284676528     -2616.178359736        46.415520859
       156           78.000000         0.105577110       308.690506438     -2616.286594271     -2616.178425155        43.557515945
       157           78.500000         0.107272342       313.647092465     -2616.288350863     -2616.178472372        42.347466187
       158           79.000000         0.108036863       315.882430417     -2616.289152003     -2616.178494675        46.118782981
       159           79.500000         0.107460107       314.196088027     -2616.288590725     -2616.178495813        43.208180917
       160           80.000000         0.105497146       308.456703870     -2616.286622849     -2616.178476717        43.453423474
       161           80.500000         0.102457934       299.570537297     -2616.283556136     -2616.178435361        44.592525571
       162           81.000000         0.099001299       289.463892249     -2616.280055497     -2616.178377934        43.321951305
       163           81.500000         0.096007026       280.709118691     -2616.277022250     -2616.178325974        43.441736478
       164           82.000000         0.094240927       275.545328622     -2616.275251699     -2616.178308865        42.341884061
       165           82.500000         0.093947257       274.686684317     -2616.275001011     -2616.178339341        44.359692794
       166           83.000000         0.094672876       276.808277357     -2616.275802056     -2616.178402246        42.743805748
       167           83.500000         0.095481583       279.172806763     -2616.276688368     -2616.178467244        42.905695713
       168           84.000000         0.095401004       278.937206957     -2616.276660100     -2616.178506912        47.093278459
       169           84.500000         0.093855014       274.416982653     -2616.275121650     -2616.178501928        45.922262712
       170           85.000000         0.090955821       265.940207825     -2616.272180357     -2616.178447616        44.625467226
       171           85.500000         0.087534759       255.937572005     -2616.268691816     -2616.178368361        47.899929854
       172           86.000000         0.084760141       247.825034585     -2616.265871184     -2616.178311006        43.207975990
       173           86.500000         0.083475040       244.067605864     -2616.264593541     -2616.178307417        41.998334414
       174           87.000000         0.083762577       244.908317357     -2616.264930162     -2616.178345552        41.809900432
       175           87.500000         0.085069981       248.730957149     -2616.266296498     -2616.178393459        42.672916230
       176           88.000000         0.086637238       253.313364276     -2616.267913319     -2616.178431840        43.071105271
       177           88.500000         0.087812645       256.750066322     -2616.269124872     -2616.178456650        41.885769276
       178           89.000000         0.088161619       257.770410677     -2616.269496206     -2616.178467601        45.085170246
       179           89.500000         0.087507002       255.856414781     -2616.268845090     -2616.178459737        44.611977260
       180           90.000000         0.085997824       251.443819273     -2616.267315104     -2616.178427730        41.393980552
       181           90.500000         0.084164616       246.083814580     -2616.265440220     -2616.178375097        44.438121467
       182           91.000000         0.082825431       242.168252491     -2616.264060426     -2616.178323765        43.010630489
       183           91.500000         0.082742733       241.926457257     -2616.263971290     -2616.178306725        42.962544847
       184           92.000000         0.084157912       246.064214291     -2616.265431889     -2616.178341490        42.722602519
       185           92.500000         0.086556176       253.076352327     -2616.267912104     -2616.178412574        41.987194129
       186           93.000000         0.088887915       259.893982970     -2616.270326248     -2616.178483836        44.183768325
       187           93.500000         0.090090608       263.410464460     -2616.271578962     -2616.178522514        40.422202710
       188           94.000000         0.089596168       261.964798608     -2616.271082507     -2616.178509133        41.069445235
       189           94.500000         0.087625320       256.202358189     -2616.269058611     -2616.178444896        40.801480311
       190           95.000000         0.085137628       248.928745262     -2616.266497831     -2616.178360927        41.521460442
       191           95.500000         0.083357789       243.724781589     -2616.264673192     -2616.178305542        41.493368170
       192           96.000000         0.083099872       242.970674768     -2616.264425198     -2616.178305038        41.813949212
       193           96.500000         0.084391940       246.748474646     -2616.265767681     -2616.178344993        41.159835668
       194           97.000000         0.086642992       253.330188514     -2616.268078681     -2616.178394289        41.215840503
       195           97.500000         0.089073186       260.435684377     -2616.270558581     -2616.178433079        41.537879765
       196           98.000000         0.091038408       266.181679272     -2616.272556976     -2616.178455085        42.551608802
       197           98.500000         0.092164745       269.474905900     -2616.273698602     -2616.178459037        44.035473460
       198           99.000000         0.092394044       270.145339871     -2616.273922312     -2616.178442044        44.113951359
       199           99.500000         0.092021330       269.055584110     -2616.273522163     -2616.178403232        44.601360862
       200          100.000000         0.091661559       268.003670637     -2616.271686849     -2616.176916376        46.247127729
       201          100.500000         0.092032495       269.088228825     -2616.272044196     -2616.176891493        43.131769019
       202          101.000000         0.093526728       273.457125503     -2616.273564884     -2616.176906557        44.789067321
       203          101.500000         0.095933080       280.492911223     -2616.276028301     -2616.176952007        47.689220392
       204          102.000000         0.098590799       288.263656638     -2616.278746091     -2616.177000164        45.438181290
       205          102.500000         0.100764999       294.620667936     -2616.280964955     -2616.177032627        42.024366196
       206          103.000000         0.101940115       298.056519033     -2616.282164652     -2616.177044803        43.793600124
       207          103.500000         0.101938288       298.051176669     -2616.282163825     -2616.177033330        44.448252092
       208          104.000000         0.100979648       295.248265400     -2616.281179885     -2616.176995616        45.328324129
       209          104.500000         0.099675384       291.434809237     -2616.279837909     -2616.176945629        45.295999401
       210          105.000000         0.098787872       288.839864679     -2616.278930558     -2616.176913656        46.842030665
       211          105.500000         0.098801211       288.878865669     -2616.278960788     -2616.176918473        46.775047670
       212          106.000000         0.099650912       291.363256839     -2616.279855672     -2616.176951534        44.352012305
       213          106.500000         0.100828762       294.807099248     -2616.281085135     -2616.176990908        46.268877359
       214          107.000000         0.101702721       297.362414610     -2616.282000213     -2616.177019665        40.992839200
       215          107.500000         0.101792699       297.625498124     -2616.282113019     -2616.177030073        41.163411018
       216          108.000000         0.100914333       295.057296857     -2616.281236080     -2616.177019129        43.074913573
       217          108.500000         0.099238100       290.156260074     -2616.279538751     -2616.176985823        42.535620536
       218          109.000000         0.097291561       284.464891638     -2616.277554071     -2616.176935697        44.748629425
       219          109.500000         0.095843627       280.231366573     -2616.276070201     -2616.176887993        43.312742970
       220          110.000000         0.095609679       279.547340391     -2616.275828350     -2616.176868436        42.421467195
       221          110.500000         0.096890261       283.291554680     -2616.277140448     -2616.176888246        44.665302674
       222          111.000000         0.099415480       290.674890367     -2616.279723180     -2616.176933832        43.352250330
       223          111.500000         0.102513356       299.732581390     -2616.282883836     -2616.176984349        43.182759190
       224          112.000000         0.105402997       308.181428244     -2616.285830245     -2616.177028489        42.047934276
       225          112.500000         0.107389941       313.990932405     -2616.287862848     -2616.177061220        43.352198409
       226          113.000000         0.107995679       315.762012722     -2616.288490332     -2616.177069868        44.203227509
       227          113.500000         0.107149066       313.286652670     -2616.287626552     -2616.177039606        43.400444443