136
Lattice="0.0 10.07 10.07 10.07 0.0 10.07 10.07 10.07 0.0" Properties=species:S:1:pos:R:3:move_mask:L:1:initial_magmoms:R:1:forces:R:3:magmoms:R:1 energy=-261246.65535399606 free_energy=-261246.65535399606 pbc="T T T"
Fe       0.85777414      -0.85777414       0.82786956  F       0.30000000      -0.09816035       0.09816035      -0.06744595       0.08080000
Fe       3.03525046       3.70694274       3.10361595  F       0.30000000      -0.00528413       0.00493600      -0.00030519       2.02750000
Fe       6.36305726       7.03474954       3.10361595  F       0.30000000      -0.00493600       0.00528413      -0.00030519       2.02750000
Fe       6.99080761       3.07919239       7.12556024  F       0.30000000      -0.12501372       0.12501372      -0.10043217       2.52250000
Fe       3.06781796       7.00218204       6.33796094  F       0.30000000      -0.02472090       0.02472090      -0.01525873       2.17680000
Fe       4.78298920       3.58151700       6.51427058  F       0.30000000       0.21132283       0.07458513      -0.08007007       1.06160000
Fe       6.48848300       5.28701080       6.51427058  F       0.30000000      -0.07458513      -0.21132283      -0.08007007       1.06160000
Fe       3.79054029       6.27945971       3.77726704  F       0.30000000       0.02277432      -0.02277432      -0.08447205       1.36000000
Fe       6.58647918       3.48352082       4.81885778  F       0.30000000      -0.21257444       0.21257444      -0.03290215       1.56470000
S        1.57999558       0.93153673       1.62591405  F       0.00000000      -0.02756428       0.01386802       0.01180291       0.00120000
S        7.20646827       8.77266729       7.08066865  T       0.00000000      -0.01437092      -0.01385927       0.04069928      -0.00040000
S        0.74769913       3.89204279       3.23503074  F       0.00000000       0.06133984       0.02001244       0.00382786      -0.00720000
S        8.59933848       5.70765631       6.48970528  F       0.00000000       0.06185380      -0.02452421      -0.11571275      -0.00140000
S        3.42301715       1.54748290       3.59941307  F       0.00000000       0.02669911       0.03040561       0.01520345      -0.00130000
S        5.37292456       6.77632115       5.37251674  F       0.00000000       0.07318002       0.00416467      -0.07257350      -0.00020000
S        3.27718679       3.87596720       0.82720678  F       0.00000000       0.03876607      -0.08164307      -0.02140983      -0.00140000
S        6.46896226       5.71801757       8.63356444  F       0.00000000      -0.02068581       0.03079976       0.17721174       0.00060000
Fe       4.50721986       5.56278014      -0.31944673  F       0.30000000       0.20434897      -0.20434897       0.04583146       2.17060000
Fe       8.27927315       8.87711763       3.65978592  F       0.30000000      -0.06086727       0.05107059      -0.03541309       1.79640000
Fe      11.26288237      11.86072685       3.65978592  F       0.30000000      -0.05107059       0.06086727      -0.03541309       1.79640000
Fe      11.97931955       8.16068045       6.42115449  F       0.30000000      -0.02337056       0.02337056       0.04788011      -1.04600000
Fe       8.87960014      11.26039986       6.34525903  T       0.30000000       0.06305348      -0.06305348       0.15821103       2.63380000
Fe       7.51228009       7.26899473       5.49906119  F       0.30000000      -0.01173991       0.06329516      -0.04738286       0.57980000
Fe      12.87100527      12.62771991       5.49906119  F       0.30000000      -0.06329516       0.01173991      -0.04738286       0.57980000
Fe       7.62947997      12.51052003       4.77185461  F       0.30000000      -0.08462169       0.08462169      -0.31740526       1.64520000
Fe      12.36621940       7.77378060       4.23126681  F       0.30000000       0.12828622      -0.12828622      -0.21475833       1.90700000
S        6.19403280       6.79281321       0.82720678  F       0.00000000       0.08164307      -0.03876607      -0.02140983      -0.00140000
S       14.42198243      13.67103774       8.63356444  F       0.00000000      -0.03079976       0.02068581       0.17721174       0.00060000
S        6.17795721       9.32230087       3.23503074  F       0.00000000      -0.02001244      -0.06133984       0.00382786      -0.00720000
S       14.43234369      11.54066152       6.48970528  F       0.00000000       0.02452421      -0.06185380      -0.11571275      -0.00140000
S        8.52251710       6.64698285       3.59941307  F       0.00000000      -0.03040561      -0.02669911       0.01520345      -0.00130000
S       13.36367885      14.76707544       5.37251674  F       0.00000000      -0.00416467      -0.07318002      -0.07257350      -0.00020000
S        9.13846327       8.49000442       1.62591405  F       0.00000000      -0.01386802       0.02756428       0.01180291       0.00120000
S       11.36733271      12.93353173       7.08066865  T       0.00000000       0.01385927       0.01437092       0.04069928      -0.00040000
Fe       5.53447127      -0.42979475       5.60759680  F       0.30000000       0.10522085       0.04626854      -0.00601844       2.42030000
Fe       9.70468973       2.57542691       9.61159006  F       0.30000000       0.01564696       0.06909583      -0.06927503       2.36730000
Fe      10.38761276       7.80178310       8.51642960  T       0.30000000      -0.13143634       0.01182296       0.00018281       2.13160000
Fe      11.32221419       3.01293326      11.31475956  F       0.30000000       0.00109966      -0.05235126       0.04346964       1.77090000
Fe       8.50670439       7.88251237      10.32718947  T       0.30000000       0.01278507       0.02721770       0.01273699       2.34860000
Fe       9.04459228       2.79000767      12.36003427  F       0.30000000      -0.01229527       0.09702135       0.06956300       2.06700000
Fe      11.27572665       7.19200506      11.14954422  T       0.30000000      -0.04880031      -0.00473906      -0.02892748       2.28980000
Fe       8.10953722       7.10829062       8.05975078  F       0.30000000       0.02128025       0.10464724      -0.03441344       1.80790000
Fe      12.42568727       2.79735094       9.09109017  F       0.30000000       0.14197529      -0.03192976       0.06068575       1.85390000
S        7.36921323       0.76560219       7.32152188  F       0.00000000      -0.04601246       0.09007320      -0.12253441       0.00050000
S       13.45324952       8.58230238      13.44785520  F       0.00000000       0.07747119      -0.04352980      -0.02410152      -0.00190000
S        7.43425287       2.63574713       9.37845747  F       0.00000000      -0.00037178       0.00037178      -0.07194255      -0.01190000
S       13.51603135       6.62396865      11.55295638  F       0.00000000      -0.04441195       0.04441195      -0.34039837       0.00600000
S        9.67246577       0.39753423       9.69576431  F       0.00000000       0.07300905      -0.07300905       0.03804744       0.00630000
S       10.67029241       9.46970759      10.16581335  T       0.00000000       0.11055101      -0.11055101       0.01746782       0.00730000
S        9.30439781       2.70078677       7.32152188  F       0.00000000      -0.09007320       0.04601246      -0.12253441       0.00050000
S       11.55769762       6.68675048      13.44785520  F       0.00000000       0.04352980      -0.07747119      -0.02410152      -0.00190000
Fe      10.49979475       4.53552873       5.60759680  F       0.30000000      -0.04626854      -0.10522085      -0.00601844       2.42030000
Fe      12.33821690       9.75238724       8.51642960  T       0.30000000      -0.01182296       0.13143634       0.00018281       2.13160000
Fe      17.56457309      10.43531027       9.61159006  F       0.30000000      -0.06909583      -0.01564696      -0.06927503       2.36730000
Fe      17.12706674       8.81778581      11.31475956  F       0.30000000       0.05235126      -0.00109966       0.04346964       1.77090000
Fe      12.25748763      11.63329561      10.32718947  T       0.30000000      -0.02721770      -0.01278507       0.01273699       2.34860000
Fe      12.94799494       8.86427335      11.14954422  T       0.30000000       0.00473906       0.04880031      -0.02892748       2.28980000
Fe      17.34999233      11.09540772      12.36003427  F       0.30000000      -0.09702135       0.01229527       0.06956300       2.06700000
Fe      13.03170938      12.03046278       8.05975078  F       0.30000000      -0.10464724      -0.02128025      -0.03441344       1.80790000
Fe      17.34264906       7.71431273       9.09109017  F       0.30000000       0.03192976      -0.14197529       0.06068575       1.85390000
S       11.27352520       6.24400573       7.07041129  F       0.00000000       0.05689363       0.01356771       0.02971141       0.01010000
S       18.07059416      14.38494147      13.65198077  F       0.00000000       0.00059521      -0.00107961      -0.11827332      -0.00480000
S       10.55366686       9.58633314       6.96264009  T       0.00000000      -0.07278793       0.07278793       0.05769581       0.00640000
S       19.23395011      10.97604989      14.01466828  F       0.00000000       0.00223223      -0.00223223       0.03797854       0.01640000
S       12.57567054       7.56432946       9.22383800  T       0.00000000       0.09553448      -0.09553448       0.15490100       0.00330000
S       17.12441194      13.08558806      11.40619653  F       0.00000000      -0.01279638       0.01279638       0.00157043      -0.01830000
S       13.89599427       8.86647480       7.07041129  F       0.00000000      -0.01356771      -0.05689363       0.02971141       0.01010000
S       15.82505853      12.13940584      13.65198077  F       0.00000000       0.00107961      -0.00059521      -0.11827332      -0.00480000
Fe      -0.49047718       5.82327030       4.13662733  F      -0.30000000       0.02386292      -0.03049405       0.06990907      -2.50940000
Fe       3.59581268       8.90645744       8.26870256  F      -0.30000000      -0.02046135      -0.01168618      -0.13733290      -1.75950000
Fe       6.41137737      11.62334062       9.31496046  T      -0.30000000      -0.09165906       0.06752848       0.18101980      -2.74610000
Fe       6.46623668       8.24955746      11.95708463  F      -0.30000000      -0.06845562      -0.03875835      -0.07030167       1.42150000
Fe       3.59869389      11.84922561      11.28684848  F      -0.30000000       0.00573227       0.03645387      -0.00282410      -1.92360000
Fe       4.24666751       7.78159511      12.33300155  F      -0.30000000      -0.06070452       0.00267729      -0.00688644      -1.78620000
Fe       5.47987092      12.63193071      12.65030486  F      -0.30000000      -0.11536823       0.00785112      -0.06044252      -2.20110000
Fe       4.67896072      12.50927908       7.63597760  F      -0.30000000       0.20098622      -0.03711387       0.07648029      -2.08220000
Fe       5.49349408       7.37323422       7.52373564  F      -0.30000000      -0.01298150       0.12742593      -0.04913635      -2.05430000
S        0.79343311       6.83720557       6.17039931  F       0.00000000       0.00083535       0.01006947       0.07474403      -0.00570000
S        8.66631804      13.79306509      14.35782541  F       0.00000000       0.26709494       0.02616046       0.06751511      -0.00130000
S        1.56443278       8.50556722       9.06270409  F       0.00000000       0.02532151      -0.02532151       0.04094482       0.00930000
S        7.32651277      12.81348723      11.36496448  T       0.00000000       0.03792146      -0.03792146       0.01158925      -0.01550000
S        3.47600209       6.59399791       8.49723465  F       0.00000000       0.00304470      -0.00304470       0.09010431       0.00610000
S        5.39492286      14.74507714      13.38227128  F       0.00000000       0.01970699      -0.01970699       0.04429728      -0.00440000
S        3.23279443       9.27656689       6.17039931  F       0.00000000      -0.01006947      -0.00083535       0.07474403      -0.00570000
S        6.34693491      11.47368196      14.35782541  F       0.00000000      -0.02616046      -0.26709494       0.06751511      -0.00130000
Fe       4.24672970      10.56047718       4.13662733  F      -0.30000000       0.03049405      -0.02386292       0.06990907      -2.50940000
Fe       8.51665938      13.72862263       9.31496046  T      -0.30000000      -0.06752848       0.09165906       0.18101980      -2.74610000
Fe      11.23354256      16.54418732       8.26870256  F      -0.30000000       0.01168618       0.02046135      -0.13733290      -1.75950000
Fe      11.89044254      13.67376332      11.95708463  F      -0.30000000       0.03875835       0.06845562      -0.07030167       1.42150000
Fe       8.29077439      16.54130611      11.28684848  F      -0.30000000      -0.03645387      -0.00573227      -0.00282410      -1.92360000
Fe       7.50806929      14.66012908      12.65030486  F      -0.30000000      -0.00785112       0.11536823      -0.06044252      -2.20110000
Fe      12.35840489      15.89333249      12.33300155  F      -0.30000000      -0.00267729       0.06070452      -0.00688644      -1.78620000
Fe       7.63072092      15.46103928       7.63597760  F      -0.30000000       0.03711387      -0.20098622       0.07648029      -2.08220000
Fe      12.76676578      14.64650592       7.52373564  F      -0.30000000      -0.12742593       0.01298150      -0.04913635      -2.05430000
S        6.43858014      11.41858271       6.43992814  T       0.00000000       0.07135994      -0.02566887      -0.02498675      -0.00630000
S       14.49886689      18.19518928      14.43423011  F       0.00000000      -0.00754722       0.01388087       0.07161808      -0.00160000
S        6.20728372      13.93271628       8.93943666  T       0.00000000      -0.04970919       0.04970919       0.05025401      -0.00980000
S       14.45382570      15.75617430      11.98608943  F       0.00000000       0.05327300      -0.05327300      -0.11511189       0.00150000
S        8.62543050      11.51456950       8.55915042  T       0.00000000      -0.39120852       0.39120852      -0.12472267      -0.01460000
S       12.15104720      18.05895280      12.09799607  F       0.00000000      -0.13188911       0.13188911      -0.06066235      -0.00470000
S        8.72141729      13.70141986       6.43992814  T       0.00000000       0.02566887      -0.07135994      -0.02498675      -0.00630000
S       12.01481072      15.71113311      14.43423011  F       0.00000000      -0.01388087       0.00754722       0.07161808      -0.00160000
Fe       5.57841244       4.49158756      10.52620290  F      -0.30000000       0.03217813      -0.03217813      -0.07481242      -2.40550000
Fe       8.55427541       9.83244283      12.33109702  T      -0.30000000       0.08992176      -0.02048604       0.02955046      -2.28580000
Fe      10.30755717      11.58572459      12.33109702  T      -0.30000000       0.02048604      -0.08992176       0.02955046      -2.28580000
Fe      11.29916204       8.84083796      17.09236440  F      -0.30000000       0.03951657      -0.03951657      -0.06710296      -1.17490000
Fe       9.66736645      10.47263355      17.61509434  F      -0.30000000      -0.05040134       0.05040134      -0.07406474      -2.32520000
Fe       9.09825625       7.77624737      17.28874480  F      -0.30000000      -0.00163496      -0.03278722      -0.00738472      -1.79980000
Fe      12.36375263      11.04174375      17.28874480  F      -0.30000000       0.03278722       0.00163496      -0.00738472      -1.79980000
Fe       8.10624191      12.03375809      13.19723214  F      -0.30000000       0.01983915      -0.01983915       0.00371113      -1.78870000
Fe      11.23526860       8.90473140      13.14380670  T      -0.30000000       0.10465547      -0.10465547       0.10530544      -2.07060000
S        7.10807057       6.31421964      11.33564268  F       0.00000000       0.00221218      -0.03698609      -0.05279580      -0.00030000
S       13.56391409      14.45530307      18.10900457  F       0.00000000      -0.03610832       0.10612331       0.18492788      -0.00120000
S        7.23923758       8.78067636      13.88834795  F       0.00000000      -0.08615972       0.09314361       0.19346291       0.00380000
S       13.63866377      12.09028645      15.78385322  F       0.00000000      -0.02885626       0.11651622      -0.00947760      -0.01440000
S        9.46087458       7.74693215      12.40289519  T       0.00000000       0.00282873       0.03874884      -0.08267485      -0.01220000
S       11.43576772      13.01185294      17.24672898  F       0.00000000       0.05837278      -0.12926710       0.10093405       0.01290000
S        7.12244444       9.69051714      10.52864311  T       0.00000000      -0.00115340      -0.01215900      -0.01953781       0.00030000
S       13.99272502      10.97112898      19.27474524  F       0.00000000      -0.02936920      -0.00831315       0.05228081      -0.00750000
Fe      13.65816245      12.91828566      13.60100154  F      -0.30000000       0.04586797      -0.08867452       0.12896885      -2.28920000
Fe      17.29171434      16.55183755      13.60100154  F      -0.30000000       0.08867452      -0.04586797       0.12896885      -2.28920000
Fe      16.55785456      13.65214544      16.68336824  T      -0.30000000      -0.02619491       0.02619491      -0.10349924      -2.19940000
Fe      13.57755814      16.63244186      17.42324054  F      -0.30000000      -0.03845805       0.03845805      -0.13177495      -1.91570000
Fe      14.19769039      14.32122601      15.96022079  F      -0.30000000      -0.01508980      -0.15755694       0.07497517      -2.36460000
Fe      15.88877399      16.01230961      15.96022079  F      -0.30000000       0.15755694       0.01508980       0.07497517      -2.36460000
Fe      14.19976720      16.01023280      14.12159931  F      -0.30000000       0.00590942      -0.00590942      -0.01346821      -1.51670000
Fe      15.89740920      14.31259080      14.23163427  F      -0.30000000       0.04961278      -0.04961278      -0.01858573      -2.28900000
S       10.44948286      13.01755556      10.52864311  T       0.00000000       0.01215900       0.00115340      -0.01953781       0.00030000
S       19.23887102      16.21727498      19.27474524  F       0.00000000       0.00831315       0.02936920       0.05228081      -0.00750000
S       11.35932364      12.90076242      13.88834795  F       0.00000000      -0.09314361       0.08615972       0.19346291       0.00380000
S       18.11971355      16.57133623      15.78385322  F       0.00000000      -0.11651622       0.02885626      -0.00947760      -0.01440000
S       12.39306785      10.67912542      12.40289519  T       0.00000000      -0.03874884      -0.00282873      -0.08267485      -0.01220000
S       17.19814706      18.77423228      17.24672898  F       0.00000000       0.12926710      -0.05837278       0.10093405       0.01290000
S       13.82578036      13.03192943      11.33564268  F       0.00000000       0.03698609      -0.00221218      -0.05279580      -0.00030000
S       15.75469693      16.64608591      18.10900457  F       0.00000000      -0.10612331       0.03610832       0.18492788      -0.00120000
H        9.42732389      10.71267611       9.33482808  T       0.00000000       0.09114664      -0.09114664       0.18045365       0.00120000
